     Message from routine get_command_line:
     unexpected argument # 2     :-inp

     Program PWSCF v.6.0 starts on 30May2021 at  8: 2:42 

     This program is part of the open-source Quantum ESPRESSO suite
     for quantum simulation of materials; please cite
         "P. Giannozzi et al., J. Phys.:Condens. Matter 21 395502 (2009);
          URL http://www.quantum-espresso.org", 
     in publications or presentations arising from this work. More details at
     http://www.quantum-espresso.org/quote

     Parallel version (MPI), running on     1 processors
     Waiting for input...
     Reading input from standard input

     Current dimensions of program PWSCF are:
     Max number of different atomic species (ntypx) = 10
     Max number of k-points (npk) =  40000
     Max angular momentum in pseudopotentials (lmaxx) =  3
               file O.pbe-n-kjpaw_psl.0.1.UPF: wavefunction(s)  2P renormalized

     Subspace diagonalization in iterative solution of the eigenvalue problem:
     a serial algorithm will be used


     G-vector sticks info
     --------------------
     sticks:   dense  smooth     PW     G-vecs:    dense   smooth      PW
     Sum        2055     825    265                46553    11861    2135



     bravais-lattice index     =            5
     lattice parameter (alat)  =       9.6715  a.u.
     unit-cell volume          =     246.2189 (a.u.)^3
     number of atoms/cell      =            4
     number of atomic types    =            3
     number of electrons       =        48.00 (up:  24.00, down:  24.00)
     number of Kohn-Sham states=           36
     kinetic-energy cutoff     =      50.0000  Ry
     charge density cutoff     =     500.0000  Ry
     convergence threshold     =      1.0E-09
     mixing beta               =       0.3000
     number of iterations used =            8  plain     mixing
     Exchange-correlation      =  SLA  PW   PBX  PBC ( 1  4  3  4 0 0)

     celldm(1)=   9.671550  celldm(2)=   0.000000  celldm(3)=   0.000000
     celldm(4)=   0.833333  celldm(5)=   0.000000  celldm(6)=   0.000000

     crystal axes: (cart. coord. in units of alat)
               a(1) = (   0.288675  -0.166667   0.942809 )  
               a(2) = (   0.000000   0.333333   0.942809 )  
               a(3) = (  -0.288675  -0.166667   0.942809 )  

     reciprocal axes: (cart. coord. in units 2 pi/alat)
               b(1) = (  1.732051 -1.000000  0.353553 )  
               b(2) = (  0.000000  2.000000  0.353553 )  
               b(3) = ( -1.732051 -1.000000  0.353553 )  


     PseudoPot. # 1 for Ni read from file:
     /home/maestro/Downloads/SSSP_efficiency_pseudos/ni_pbe_v1.4.uspp.F.UPF
     MD5 check sum: 1ee80287db30b12d2bc1f57a5b5d6409
     Pseudo is Ultrasoft + core correction, Zval = 18.0
     Generated by new atomic code, or converted to UPF format
     Using radial grid of  865 points,  6 beta functions with: 
                l(1) =   0
                l(2) =   0
                l(3) =   1
                l(4) =   1
                l(5) =   2
                l(6) =   2
     Q(r) pseudized with 10 coefficients,  rinner =    0.980   0.980   0.980
                                                       0.980   0.980

     PseudoPot. # 2 for Ni read from file:
     /home/maestro/Downloads/SSSP_efficiency_pseudos/ni_pbe_v1.4.uspp.F.UPF
     MD5 check sum: 1ee80287db30b12d2bc1f57a5b5d6409
     Pseudo is Ultrasoft + core correction, Zval = 18.0
     Generated by new atomic code, or converted to UPF format
     Using radial grid of  865 points,  6 beta functions with: 
                l(1) =   0
                l(2) =   0
                l(3) =   1
                l(4) =   1
                l(5) =   2
                l(6) =   2
     Q(r) pseudized with 10 coefficients,  rinner =    0.980   0.980   0.980
                                                       0.980   0.980

     PseudoPot. # 3 for  O read from file:
     /home/maestro/Downloads/SSSP_efficiency_pseudos/O.pbe-n-kjpaw_psl.0.1.UPF
     MD5 check sum: 0234752ac141de4415c5fc33072bef88
     Pseudo is Projector augmented-wave + core cor, Zval =  6.0
     Generated using "atomic" code by A. Dal Corso  v.5.0.99 svn rev. 10869
     Shape of augmentation charge: BESSEL
     Using radial grid of 1095 points,  4 beta functions with: 
                l(1) =   0
                l(2) =   0
                l(3) =   1
                l(4) =   1
     Q(r) pseudized with 0 coefficients 


     atomic species   valence    mass     pseudopotential
        Ni1           18.00    58.39640     Ni( 1.00)
        Ni2           18.00    58.39640     Ni( 1.00)
        O              6.00    15.99900      O( 1.00)

     Starting magnetic structure 
     atomic species   magnetization
        Ni1          0.200
        Ni2         -0.200
        O            0.000

     12 Sym. Ops., with inversion, found



   Cartesian axes

     site n.     atom                  positions (alat units)
         1           Ni1 tau(   1) = (   0.0000000   0.0000000   0.0000000  )
         2           Ni2 tau(   2) = (   0.0000000   0.6666667   0.4714045  )
         3           O   tau(   3) = (   0.2886751  -0.1666667   0.2357023  )
         4           O   tau(   4) = (  -0.2886751   0.1666667  -0.2357023  )

     number of k points=    13
                       cart. coord. in units 2pi/alat
        k(    1) = (   0.0000000   0.0000000   0.0000000), wk =   0.0156250
        k(    2) = (  -0.4330127  -0.2500000   0.0883883), wk =   0.0937500
        k(    3) = (   0.8660254   0.5000000  -0.1767767), wk =   0.0468750
        k(    4) = (  -0.4330127   0.2500000   0.1767767), wk =   0.0937500
        k(    5) = (   0.8660254   1.0000000  -0.0883883), wk =   0.1875000
        k(    6) = (   0.4330127   0.7500000   0.0000000), wk =   0.0937500
        k(    7) = (   0.8660254  -0.5000000  -0.3535534), wk =   0.0468750
        k(    8) = (   0.0000000   0.0000000   0.2651650), wk =   0.0312500
        k(    9) = (   1.2990381   0.7500000   0.0000000), wk =   0.0937500
        k(   10) = (   0.8660254   0.5000000   0.0883883), wk =   0.0937500
        k(   11) = (   1.2990381  -0.7500000  -0.2651650), wk =   0.0937500
        k(   12) = (   0.8660254  -1.0000000  -0.1767767), wk =   0.0937500
        k(   13) = (   0.0000000   0.0000000  -0.5303301), wk =   0.0156250

     Dense  grid:    46553 G-vectors     FFT dimensions: (  72,  72,  72)

     Smooth grid:    11861 G-vectors     FFT dimensions: (  45,  45,  45)

     Estimated max dynamical RAM per process >     103.97Mb
     Generating pointlists ...
     new r_m :   0.1684 (alat units)  1.6287 (a.u.) for type    1
     new r_m :   0.1684 (alat units)  1.6287 (a.u.) for type    2
     new r_m :   0.1684 (alat units)  1.6287 (a.u.) for type    3

     Check: negative/imaginary core charge=   -0.000006    0.000000

     Initial potential from superposition of free atoms

     starting charge   44.00000, renormalised to   48.00000
     Starting wfc are   34 randomized atomic wfcs +    2 random wfc
     Checking if some PAW data can be deallocated... 

     total cpu time spent up to now is       17.8 secs

     per-process dynamical memory:    89.8 Mb

     Self-consistent Calculation

     iteration #  1     ecut=    50.00 Ry     beta=0.30
     Davidson diagonalization with overlap
     ethr =  1.00E-02,  avg # of iterations =  4.1

     total cpu time spent up to now is       53.2 secs

     total energy              =    -750.93983300 Ry
     Harris-Foulkes estimate   =    -780.38747702 Ry
     estimated scf accuracy    <      63.60872615 Ry

     total magnetization       =     0.00 Bohr mag/cell
     absolute magnetization    =     3.92 Bohr mag/cell

     iteration #  2     ecut=    50.00 Ry     beta=0.30
     Davidson diagonalization with overlap
     ethr =  1.00E-02,  avg # of iterations =  3.0

     total cpu time spent up to now is       80.0 secs

     total energy              =    -767.39113372 Ry
     Harris-Foulkes estimate   =    -774.85371185 Ry
     estimated scf accuracy    <      24.30469737 Ry

     total magnetization       =    -0.00 Bohr mag/cell
     absolute magnetization    =     0.36 Bohr mag/cell

     iteration #  3     ecut=    50.00 Ry     beta=0.30
     Davidson diagonalization with overlap
     ethr =  1.00E-02,  avg # of iterations =  2.0

     total cpu time spent up to now is       98.9 secs

     total energy              =    -769.71120163 Ry
     Harris-Foulkes estimate   =    -769.71684726 Ry
     estimated scf accuracy    <       0.29307789 Ry

     total magnetization       =    -0.00 Bohr mag/cell
     absolute magnetization    =     2.89 Bohr mag/cell

     iteration #  4     ecut=    50.00 Ry     beta=0.30
     Davidson diagonalization with overlap
     ethr =  6.11E-04,  avg # of iterations =  1.2

     total cpu time spent up to now is      118.0 secs

     total energy              =    -769.77004767 Ry
     Harris-Foulkes estimate   =    -769.73987930 Ry
     estimated scf accuracy    <       0.07536960 Ry

     total magnetization       =    -0.00 Bohr mag/cell
     absolute magnetization    =     3.14 Bohr mag/cell

     iteration #  5     ecut=    50.00 Ry     beta=0.30
     Davidson diagonalization with overlap
     ethr =  1.57E-04,  avg # of iterations =  1.0

     total cpu time spent up to now is      135.1 secs

     total energy              =    -769.77192337 Ry
     Harris-Foulkes estimate   =    -769.78034761 Ry
     estimated scf accuracy    <       0.03449569 Ry

     total magnetization       =     0.00 Bohr mag/cell
     absolute magnetization    =     2.95 Bohr mag/cell

     iteration #  6     ecut=    50.00 Ry     beta=0.30
     Davidson diagonalization with overlap
     ethr =  7.19E-05,  avg # of iterations =  1.2

     total cpu time spent up to now is      150.5 secs

     total energy              =    -769.77729760 Ry
     Harris-Foulkes estimate   =    -769.77747173 Ry
     estimated scf accuracy    <       0.00077265 Ry

     total magnetization       =     0.00 Bohr mag/cell
     absolute magnetization    =     3.06 Bohr mag/cell

     iteration #  7     ecut=    50.00 Ry     beta=0.30
     Davidson diagonalization with overlap
     ethr =  1.61E-06,  avg # of iterations =  2.6

     total cpu time spent up to now is      167.2 secs

     total energy              =    -769.77745197 Ry
     Harris-Foulkes estimate   =    -769.77744222 Ry
     estimated scf accuracy    <       0.00002321 Ry

     total magnetization       =    -0.00 Bohr mag/cell
     absolute magnetization    =     3.04 Bohr mag/cell

     iteration #  8     ecut=    50.00 Ry     beta=0.30
     Davidson diagonalization with overlap
     ethr =  4.84E-08,  avg # of iterations =  2.0

     total cpu time spent up to now is      184.8 secs

     total energy              =    -769.77746168 Ry
     Harris-Foulkes estimate   =    -769.77745950 Ry
     estimated scf accuracy    <       0.00003684 Ry

     total magnetization       =     0.00 Bohr mag/cell
     absolute magnetization    =     3.04 Bohr mag/cell

     iteration #  9     ecut=    50.00 Ry     beta=0.30
     Davidson diagonalization with overlap
     ethr =  4.84E-08,  avg # of iterations =  1.0

     total cpu time spent up to now is      200.4 secs

     total energy              =    -769.77746355 Ry
     Harris-Foulkes estimate   =    -769.77746404 Ry
     estimated scf accuracy    <       0.00001673 Ry

     total magnetization       =     0.00 Bohr mag/cell
     absolute magnetization    =     3.04 Bohr mag/cell

     iteration # 10     ecut=    50.00 Ry     beta=0.30
     Davidson diagonalization with overlap
     ethr =  3.49E-08,  avg # of iterations =  1.9

     total cpu time spent up to now is      218.3 secs

     total energy              =    -769.77746691 Ry
     Harris-Foulkes estimate   =    -769.77746593 Ry
     estimated scf accuracy    <       0.00000010 Ry

     total magnetization       =     0.00 Bohr mag/cell
     absolute magnetization    =     3.04 Bohr mag/cell

     iteration # 11     ecut=    50.00 Ry     beta=0.30
     Davidson diagonalization with overlap
     ethr =  2.09E-10,  avg # of iterations =  2.0

     total cpu time spent up to now is      241.5 secs

     total energy              =    -769.77746742 Ry
     Harris-Foulkes estimate   =    -769.77746693 Ry
     estimated scf accuracy    <       0.00000004 Ry

     total magnetization       =    -0.00 Bohr mag/cell
     absolute magnetization    =     3.04 Bohr mag/cell

     iteration # 12     ecut=    50.00 Ry     beta=0.30
     Davidson diagonalization with overlap
     ethr =  7.43E-11,  avg # of iterations =  1.9

     total cpu time spent up to now is      259.9 secs

     total energy              =    -769.77746766 Ry
     Harris-Foulkes estimate   =    -769.77746742 Ry
     estimated scf accuracy    <       0.00000001 Ry

     total magnetization       =    -0.00 Bohr mag/cell
     absolute magnetization    =     3.04 Bohr mag/cell

     iteration # 13     ecut=    50.00 Ry     beta=0.30
     Davidson diagonalization with overlap
     ethr =  2.86E-11,  avg # of iterations =  2.0

     Magnetic moment per site:
     atom:    1    charge:   15.6816    magn:    1.3676    constr:    0.0000
     atom:    2    charge:   15.6816    magn:   -1.3676    constr:    0.0000
     atom:    3    charge:    5.6696    magn:    0.0000    constr:    0.0000
     atom:    4    charge:    5.6696    magn:    0.0000    constr:    0.0000

     total cpu time spent up to now is      283.2 secs

     End of self-consistent calculation

 ------ SPIN UP ------------


          k = 0.0000 0.0000 0.0000 (  1479 PWs)   bands (ev):

   -90.1599 -88.2474 -50.5612 -50.5312 -50.5312 -48.7031 -48.6843 -48.6843
    -6.0143  -4.6163   6.1251   8.7598   8.7598  11.3711  11.3711  11.3730
    11.7831  11.7831  11.8818  12.2330  12.2330  13.1851  13.1851  13.4543
    15.7309  15.7309  15.8468  19.8519  24.3494  28.3213  28.3213  31.9451
    33.1443  33.1463  33.1463  35.5639

          k =-0.4330-0.2500 0.0884 (  1466 PWs)   bands (ev):

   -90.1590 -88.2464 -50.5597 -50.5425 -50.5341 -48.7014 -48.6969 -48.6875
    -5.4334  -4.5271   7.0719   8.2933   8.4473   8.9026   9.9071  10.1396
    11.7625  12.2846  12.4191  12.7720  12.9415  13.2229  13.5369  13.5657
    14.9070  15.4083  18.8079  22.5487  23.6119  25.4192  27.3941  29.4783
    29.5049  30.8507  32.8679  35.3052

          k = 0.8660 0.5000-0.1768 (  1470 PWs)   bands (ev):

   -90.1581 -88.2455 -50.5581 -50.5537 -50.5369 -48.7095 -48.6998 -48.6907
    -4.6018  -4.5868   7.1190   7.2093   8.4454   8.7929   9.0123   9.5553
    11.7137  12.3634  12.6816  12.7198  13.2667  13.4269  13.5635  13.7190
    15.1528  15.1788  21.7426  21.8976  24.0229  24.1661  25.9258  25.9796
    29.7304  29.8365  33.3858  33.3895

          k =-0.4330 0.2500 0.1768 (  1480 PWs)   bands (ev):

   -90.1590 -88.2464 -50.5597 -50.5425 -50.5341 -48.7014 -48.6969 -48.6875
    -5.3778  -4.5945   7.1648   8.1975   8.5682   9.1257   9.6660   9.7627
    11.8451  12.2109  12.3367  12.9339  13.0095  13.3104  13.6308  13.7721
    15.1491  15.1733  18.5835  21.8213  24.0914  25.9534  26.4741  29.7777
    30.6251  30.6332  33.3882  34.6483

          k = 0.8660 1.0000-0.0884 (  1465 PWs)   bands (ev):

   -90.1581 -88.2455 -50.5581 -50.5495 -50.5411 -48.7048 -48.6997 -48.6954
    -4.7014  -4.4899   7.0844   7.6045   8.3739   8.7545   9.0001   9.1703
    12.1149  12.2743  12.4500  12.8870  13.0210  13.4173  13.5117  13.6699
    14.9954  15.4759  21.4658  22.5228  24.2681  24.5673  25.2867  26.1272
    28.9600  29.4355  34.2915  34.7189

          k = 0.4330 0.7500 0.0000 (  1466 PWs)   bands (ev):

   -90.1581 -88.2455 -50.5581 -50.5495 -50.5411 -48.7048 -48.6997 -48.6954
    -4.7465  -4.4474   7.1480   8.2035   8.2072   8.5698   8.8420   8.9151
    12.2105  12.4053  12.5189  12.7714  12.9394  13.2116  13.5070  13.6602
    14.8344  15.7725  21.3540  22.8776  24.9771  24.9802  25.2747  25.3837
    27.7560  29.6933  35.9230  36.3411

          k = 0.8660-0.5000-0.3536 (  1494 PWs)   bands (ev):

   -90.1581 -88.2455 -50.5582 -50.5537 -50.5369 -48.7095 -48.6997 -48.6907
    -4.6161  -4.5585   6.1240   7.4224   8.7653   8.7841  10.0614  10.0624
    11.0101  12.2845  12.5099  12.7358  12.9045  13.3243  13.5796  13.6984
    15.7780  15.8441  19.8542  20.5087  24.3499  24.8732  26.5445  28.3205
    28.3231  30.9300  30.9308  35.5671

          k = 0.0000 0.0000 0.2652 (  1476 PWs)   bands (ev):

   -90.1599 -88.2474 -50.5612 -50.5312 -50.5312 -48.7031 -48.6843 -48.6843
    -5.8378  -4.8564   6.7034   8.9457   8.9457  10.0851  10.6126  10.6126
    11.8329  11.8329  12.1680  12.9522  12.9522  13.1838  13.1838  13.3089
    15.4970  15.4970  16.8631  19.6725  24.7466  28.9546  28.9546  29.3358
    32.5301  32.5301  34.2157  35.1693

          k = 1.2990 0.7500 0.0000 (  1471 PWs)   bands (ev):

   -90.1590 -88.2464 -50.5596 -50.5425 -50.5341 -48.7015 -48.6969 -48.6875
    -5.2428  -4.7466   7.1428   7.9060   8.8353   8.8949  10.2721  10.2814
    11.4325  12.3457  12.4350  12.4351  12.7409  13.2822  13.4433  13.6327
    14.5631  15.6927  19.7945  21.3542  25.2679  25.3815  27.4508  27.8077
    29.6911  30.8147  30.8190  35.9261

          k = 0.8660 0.5000 0.0884 (  1475 PWs)   bands (ev):

   -90.1581 -88.2455 -50.5581 -50.5537 -50.5369 -48.7095 -48.6997 -48.6907
    -4.6119  -4.5697   6.4431   7.4465   8.6756   8.8615   9.3224   9.8242
    11.4469  12.3392  12.5540  12.8693  13.0385  13.2715  13.5727  13.7104
    15.4900  15.5025  20.7478  21.0632  24.1537  24.7961  26.0710  27.2169
    28.7789  30.6323  31.4628  36.2206

          k = 1.2990-0.7500-0.2652 (  1471 PWs)   bands (ev):

   -90.1590 -88.2464 -50.5596 -50.5425 -50.5341 -48.7015 -48.6969 -48.6875
    -5.1014  -4.8995   7.3827   7.5956   9.0957   9.3255   9.6217   9.8902
    11.5839  12.2190  12.3498  12.7818  12.9805  13.2339  13.5763  13.5792
    14.8502  15.5069  19.7050  20.7955  25.5175  25.7890  26.7257  28.0123
    30.2048  30.4001  31.7935  35.2635

          k = 0.8660-1.0000-0.1768 (  1470 PWs)   bands (ev):

   -90.1581 -88.2455 -50.5581 -50.5495 -50.5411 -48.7048 -48.6997 -48.6954
    -4.5974  -4.5913   7.1539   7.1739   8.5131   8.6358   9.1916   9.4419
    11.9937  12.1084  12.4622  12.9097  13.2026  13.5810  13.5912  13.6466
    15.1551  15.1581  21.7637  21.8781  24.0369  24.1498  25.9352  25.9749
    29.7368  29.8272  33.3607  33.4142

          k = 0.0000 0.0000-0.5303 (  1490 PWs)   bands (ev):

   -90.1599 -88.2474 -50.5611 -50.5312 -50.5312 -48.7032 -48.6843 -48.6843
    -5.3808  -5.3749   8.1737   8.2242   9.2795   9.2795   9.9771   9.9771
    11.8873  11.8873  12.2717  13.0203  13.0203  13.1525  13.6505  13.6505
    15.1716  15.1716  18.5154  18.6526  26.4048  26.5400  30.5964  30.5964
    30.6546  30.6546  34.6042  34.6839

 ------ SPIN DOWN ----------


          k = 0.0000 0.0000 0.0000 (  1479 PWs)   bands (ev):

   -90.1599 -88.2474 -50.5612 -50.5312 -50.5312 -48.7031 -48.6843 -48.6843
    -6.0143  -4.6163   6.1251   8.7598   8.7598  11.3711  11.3711  11.3730
    11.7831  11.7831  11.8818  12.2330  12.2330  13.1851  13.1851  13.4543
    15.7309  15.7309  15.8468  19.8519  24.3494  28.3213  28.3213  31.9451
    33.1443  33.1463  33.1463  35.5639

          k =-0.4330-0.2500 0.0884 (  1466 PWs)   bands (ev):

   -90.1590 -88.2464 -50.5597 -50.5425 -50.5341 -48.7014 -48.6969 -48.6875
    -5.4334  -4.5271   7.0719   8.2933   8.4473   8.9025   9.9071  10.1396
    11.7625  12.2846  12.4191  12.7720  12.9415  13.2229  13.5369  13.5657
    14.9070  15.4083  18.8079  22.5487  23.6119  25.4192  27.3941  29.4783
    29.5049  30.8507  32.8679  35.3052

          k = 0.8660 0.5000-0.1768 (  1470 PWs)   bands (ev):

   -90.1581 -88.2455 -50.5581 -50.5537 -50.5369 -48.7095 -48.6998 -48.6907
    -4.6018  -4.5868   7.1190   7.2093   8.4454   8.7929   9.0123   9.5553
    11.7137  12.3634  12.6816  12.7198  13.2667  13.4269  13.5635  13.7190
    15.1528  15.1788  21.7426  21.8976  24.0229  24.1661  25.9258  25.9796
    29.7304  29.8365  33.3858  33.3895

          k =-0.4330 0.2500 0.1768 (  1480 PWs)   bands (ev):

   -90.1590 -88.2464 -50.5597 -50.5425 -50.5341 -48.7014 -48.6969 -48.6875
    -5.3778  -4.5945   7.1648   8.1975   8.5682   9.1257   9.6660   9.7627
    11.8451  12.2109  12.3367  12.9339  13.0095  13.3104  13.6308  13.7721
    15.1491  15.1733  18.5835  21.8213  24.0914  25.9534  26.4741  29.7777
    30.6251  30.6332  33.3882  34.6483

          k = 0.8660 1.0000-0.0884 (  1465 PWs)   bands (ev):

   -90.1581 -88.2455 -50.5581 -50.5495 -50.5411 -48.7048 -48.6997 -48.6954
    -4.7014  -4.4899   7.0844   7.6045   8.3739   8.7545   9.0001   9.1703
    12.1149  12.2743  12.4500  12.8870  13.0210  13.4173  13.5117  13.6699
    14.9954  15.4759  21.4658  22.5228  24.2681  24.5673  25.2867  26.1272
    28.9600  29.4355  34.2915  34.7189

          k = 0.4330 0.7500 0.0000 (  1466 PWs)   bands (ev):

   -90.1581 -88.2455 -50.5581 -50.5495 -50.5411 -48.7048 -48.6997 -48.6954
    -4.7465  -4.4474   7.1480   8.2035   8.2072   8.5698   8.8420   8.9151
    12.2105  12.4053  12.5189  12.7714  12.9394  13.2116  13.5070  13.6602
    14.8344  15.7725  21.3540  22.8776  24.9771  24.9802  25.2747  25.3837
    27.7560  29.6933  35.9230  36.3411

          k = 0.8660-0.5000-0.3536 (  1494 PWs)   bands (ev):

   -90.1581 -88.2455 -50.5582 -50.5537 -50.5369 -48.7095 -48.6997 -48.6907
    -4.6161  -4.5585   6.1240   7.4224   8.7653   8.7841  10.0614  10.0624
    11.0101  12.2845  12.5099  12.7358  12.9045  13.3243  13.5796  13.6984
    15.7780  15.8441  19.8542  20.5087  24.3499  24.8732  26.5445  28.3205
    28.3231  30.9300  30.9308  35.5671

          k = 0.0000 0.0000 0.2652 (  1476 PWs)   bands (ev):

   -90.1599 -88.2474 -50.5612 -50.5312 -50.5312 -48.7031 -48.6843 -48.6843
    -5.8378  -4.8564   6.7034   8.9457   8.9457  10.0851  10.6126  10.6126
    11.8329  11.8329  12.1680  12.9522  12.9522  13.1838  13.1838  13.3089
    15.4970  15.4970  16.8631  19.6725  24.7466  28.9546  28.9546  29.3358
    32.5301  32.5301  34.2157  35.1693

          k = 1.2990 0.7500 0.0000 (  1471 PWs)   bands (ev):

   -90.1590 -88.2464 -50.5596 -50.5425 -50.5341 -48.7015 -48.6969 -48.6875
    -5.2428  -4.7466   7.1428   7.9060   8.8353   8.8949  10.2721  10.2814
    11.4325  12.3457  12.4350  12.4351  12.7409  13.2822  13.4433  13.6327
    14.5631  15.6927  19.7945  21.3542  25.2679  25.3815  27.4508  27.8076
    29.6911  30.8147  30.8190  35.9261

          k = 0.8660 0.5000 0.0884 (  1475 PWs)   bands (ev):

   -90.1581 -88.2455 -50.5581 -50.5537 -50.5369 -48.7095 -48.6997 -48.6907
    -4.6119  -4.5697   6.4431   7.4465   8.6756   8.8615   9.3224   9.8242
    11.4469  12.3392  12.5540  12.8693  13.0385  13.2715  13.5727  13.7104
    15.4900  15.5025  20.7477  21.0632  24.1537  24.7961  26.0709  27.2169
    28.7789  30.6323  31.4628  36.2205

          k = 1.2990-0.7500-0.2652 (  1471 PWs)   bands (ev):

   -90.1590 -88.2464 -50.5596 -50.5425 -50.5341 -48.7015 -48.6969 -48.6875
    -5.1014  -4.8995   7.3827   7.5956   9.0957   9.3255   9.6217   9.8902
    11.5839  12.2190  12.3498  12.7818  12.9805  13.2339  13.5763  13.5792
    14.8502  15.5069  19.7050  20.7955  25.5175  25.7890  26.7257  28.0122
    30.2048  30.4001  31.7935  35.2635

          k = 0.8660-1.0000-0.1768 (  1470 PWs)   bands (ev):

   -90.1581 -88.2455 -50.5581 -50.5495 -50.5411 -48.7048 -48.6997 -48.6954
    -4.5974  -4.5913   7.1539   7.1739   8.5131   8.6358   9.1916   9.4419
    11.9937  12.1084  12.4622  12.9097  13.2026  13.5810  13.5913  13.6466
    15.1551  15.1581  21.7637  21.8781  24.0369  24.1498  25.9352  25.9749
    29.7368  29.8272  33.3607  33.4142

          k = 0.0000 0.0000-0.5303 (  1490 PWs)   bands (ev):

   -90.1599 -88.2474 -50.5611 -50.5312 -50.5312 -48.7032 -48.6843 -48.6843
    -5.3808  -5.3749   8.1737   8.2242   9.2795   9.2795   9.9771   9.9771
    11.8873  11.8873  12.2717  13.0203  13.0203  13.1525  13.6505  13.6505
    15.1716  15.1716  18.5154  18.6526  26.4048  26.5400  30.5964  30.5964
    30.6546  30.6546  34.6042  34.6839

     highest occupied, lowest unoccupied level (ev):    13.7721   14.5631

!    total energy              =    -769.77746788 Ry
     Harris-Foulkes estimate   =    -769.77746766 Ry
     estimated scf accuracy    <          2.1E-10 Ry

     The total energy is the sum of the following terms:

     one-electron contribution =    -433.33525078 Ry
     hartree contribution      =     246.32665524 Ry
     xc contribution           =     -86.08229254 Ry
     ewald contribution        =    -477.64553572 Ry
     one-center paw contrib.   =     -19.04104408 Ry

     total magnetization       =    -0.00 Bohr mag/cell
     absolute magnetization    =     3.04 Bohr mag/cell

     convergence has been achieved in  13 iterations

     Forces acting on atoms (Ry/au):

     atom    1 type  1   force =     0.00000000    0.00000000    0.00000000
     atom    2 type  2   force =     0.00000000    0.00000000    0.00000000
     atom    3 type  3   force =     0.00000000    0.00000000    0.00000016
     atom    4 type  3   force =     0.00000000    0.00000000   -0.00000016

     Total force =     0.000000     Total SCF correction =     0.000001
     SCF correction compared to forces is large: reduce conv_thr to get better values

     Writing output data file NiO.save

     init_run     :     12.90s CPU     16.58s WALL (       1 calls)
     electrons    :    223.16s CPU    265.54s WALL (       1 calls)
     forces       :      3.38s CPU      4.98s WALL (       1 calls)

     Called by init_run:
     wfcinit      :      5.93s CPU      6.60s WALL (       1 calls)
     potinit      :      2.48s CPU      3.80s WALL (       1 calls)

     Called by electrons:
     c_bands      :    158.23s CPU    188.94s WALL (      13 calls)
     sum_band     :     36.55s CPU     43.77s WALL (      13 calls)
     v_of_rho     :     17.09s CPU     19.07s WALL (      14 calls)
     newd         :      5.35s CPU      8.09s WALL (      14 calls)
     PAW_pot      :      7.04s CPU      7.75s WALL (      14 calls)
     mix_rho      :      0.66s CPU      0.74s WALL (      13 calls)

     Called by c_bands:
     init_us_2    :      0.85s CPU      1.04s WALL (     728 calls)
     cegterg      :    156.01s CPU    186.41s WALL (     338 calls)

     Called by sum_band:
     sum_band:bec :      0.02s CPU      0.03s WALL (     338 calls)
     addusdens    :      7.32s CPU      9.87s WALL (      13 calls)

     Called by *egterg:
     h_psi        :    129.62s CPU    157.64s WALL (    1036 calls)
     s_psi        :      4.99s CPU      5.50s WALL (    1036 calls)
     g_psi        :      0.18s CPU      0.24s WALL (     672 calls)
     cdiaghg      :      4.27s CPU      4.84s WALL (    1010 calls)

     Called by h_psi:
     h_psi:pot    :    129.39s CPU    157.32s WALL (    1036 calls)
     h_psi:calbec :      5.42s CPU      6.03s WALL (    1036 calls)
     vloc_psi     :    119.00s CPU    145.74s WALL (    1036 calls)
     add_vuspsi   :      4.95s CPU      5.51s WALL (    1036 calls)

     General routines
     calbec       :      8.24s CPU      9.12s WALL (    1478 calls)
     fft          :      5.46s CPU      6.79s WALL (     443 calls)
     ffts         :      0.16s CPU      0.19s WALL (      54 calls)
     fftw         :    125.64s CPU    152.20s WALL (   70448 calls)
     interpolate  :      0.92s CPU      1.14s WALL (      54 calls)
     davcio       :      0.00s CPU      0.01s WALL (      26 calls)

     Parallel routines
     fft_scatter  :      6.47s CPU      7.94s WALL (   70945 calls)

     PWSCF        :  4m 0.56s CPU     4m48.51s WALL


   This run was terminated on:   8: 7:30  30May2021            

=------------------------------------------------------------------------------=
   JOB DONE.
=------------------------------------------------------------------------------=
